 Q-Chem 5.3 (devel), Q-Chem, Inc., Pleasanton, CA (2020)
 Q-Chem 5.3.0 for Intel X86 EM64T Linux

User input:
--------------------------------------------------------------
$molecule
0 1
   C       0.0000000000     1.1660982027     1.0273552653
   C       0.0000000000     1.1946334528     2.4157604328
   C       0.0000000180    -0.0121639542     3.1095089387
   C       0.0000000000    -1.2069297484     2.3932025625
   C      -0.0000000116    -1.1526098051     1.0067050564
   N       0.0000000000     0.0134384443     0.3516673433
   C       0.0000000201     0.0047870381    -1.4977735385
   H       0.0000000272     2.0723357584     0.4322646461
   H      -0.0000000085     2.1442784132     2.9351282546
   H      -0.0000000204    -0.0221952055     4.1928532082
   H      -0.0000000275    -2.1658350290     2.8952524958
   H       0.0000000072    -2.0464911312     0.3926780136
   H      -0.0000000545     1.0703998494    -1.6459204808
   H      -0.9246984434    -0.5273334701    -1.6369976837
   H       0.9246984837    -0.5273334658    -1.6369976934
   Cl     -0.0000000136     0.0031832501    -3.9609413212
$end

$rem
   BASIS  =  6-311g**
   JOB_TYPE  =  FREQ
   METHOD  =  b3lyp
   SCF_CONVERGENCE  =  8
   GUI  =  2

   SYMMETRY_IGNORE  =  1
   SYMMETRY_INTEGRAL  =  0
   XC_GRID  =  3
$end

--------------------------------------------------------------

   16    -748.4428417635      2.08e-09  Convergence criterion met
 Total energy in the final basis set =     -748.4428417635
 Frequency:      -440.84                  19.90                  60.12
 Force Cnst:      1.2941                 0.0003                 0.0072
 Red. Mass:      11.3020                 1.1682                 3.3766
 IR Intens:     1309.174                  0.020                  2.574
 Frequency:        79.11                 186.50                 252.19
 Force Cnst:      0.0186                 0.3051                 0.1311
 Red. Mass:       5.0374                14.8869                 3.4995
 IR Intens:        5.334                 24.052                  4.622
 Frequency:       334.31                 389.76                 447.89
 Force Cnst:      0.2277                 0.2344                 0.4207
 Red. Mass:       3.4583                 2.6189                 3.5597
 IR Intens:        1.564                  0.001                  4.697
 Frequency:       633.62                 663.15                 710.04
 Force Cnst:      1.5138                 1.6540                 0.5175
 Red. Mass:       6.3995                 6.3837                 1.7422
 IR Intens:       43.343                  0.100                 48.343
 Frequency:       768.40                 893.73                 966.29
 Force Cnst:      0.5733                 0.5869                 0.7216
 Red. Mass:       1.6481                 1.2472                 1.3117
 IR Intens:       32.462                  0.007                  0.404
 Frequency:       999.44                1003.20                1029.47
 Force Cnst:      1.7422                 0.8566                 0.7523
 Red. Mass:       2.9602                 1.4446                 1.2047
 IR Intens:      126.945                  0.000                  4.650
 Frequency:      1031.54                1036.64                1051.36
 Force Cnst:      0.8353                 0.6980                 2.4247
 Red. Mass:       1.3323                 1.1024                 3.7231
 IR Intens:        0.015                  2.071                 14.677
 Frequency:      1083.34                1107.82                1170.14
 Force Cnst:      1.3516                 1.1246                 1.0075
 Red. Mass:       1.9547                 1.5552                 1.2489
 IR Intens:       22.892                  0.299                  3.702
 Frequency:      1180.78                1233.92                1311.92
 Force Cnst:      0.9339                 1.0998                 6.3868
 Red. Mass:       1.1369                 1.2260                 6.2982
 IR Intens:        2.079                 13.711                  2.160
 Frequency:      1382.78                1388.57                1396.68
 Force Cnst:      1.3716                 1.2416                 1.2592
 Red. Mass:       1.2175                 1.0929                 1.0956
 IR Intens:        2.436                 10.924                  8.266
 Frequency:      1491.07                1519.20                1625.49
 Force Cnst:      2.8818                 2.7098                 9.1267
 Red. Mass:       2.2000                 1.9927                 5.8626
 IR Intens:       40.285                  0.011                  2.902
 Frequency:      1647.93                3153.84                3181.06
 Force Cnst:      7.9529                 5.9225                 6.4981
 Red. Mass:       4.9705                 1.0106                 1.0899
 IR Intens:       36.810                  3.405                  4.816
 Frequency:      3182.55                3190.65                3205.27
 Force Cnst:      6.5016                 6.5492                 6.6255
 Red. Mass:       1.0895                 1.0919                 1.0946
 IR Intens:        4.926                  1.169                  2.998
 Frequency:      3210.45                3336.30                3337.19
 Force Cnst:      6.6759                 7.3633                 7.3673
 Red. Mass:       1.0993                 1.1228                 1.1228
 IR Intens:        8.154                  0.619                  2.360

 STANDARD THERMODYNAMIC QUANTITIES AT   298.15 K  AND     1.00 ATM

   This Molecule has  1 Imaginary Frequencies
   Zero point vibrational energy:       79.904 kcal/mol

   Atom    1 Element C  Has Mass   12.00000
   Atom    2 Element C  Has Mass   12.00000
   Atom    3 Element C  Has Mass   12.00000
   Atom    4 Element C  Has Mass   12.00000
   Atom    5 Element C  Has Mass   12.00000
   Atom    6 Element N  Has Mass   14.00307
   Atom    7 Element C  Has Mass   12.00000
   Atom    8 Element H  Has Mass    1.00783
   Atom    9 Element H  Has Mass    1.00783
   Atom   10 Element H  Has Mass    1.00783
   Atom   11 Element H  Has Mass    1.00783
   Atom   12 Element H  Has Mass    1.00783
   Atom   13 Element H  Has Mass    1.00783
   Atom   14 Element H  Has Mass    1.00783
   Atom   15 Element H  Has Mass    1.00783
   Atom   16 Element Cl Has Mass   34.96885
   Molecular Mass:   129.034560 amu
   Principal axes and moments of inertia in amu*Bohr^2:
                             1           2           3
    Eigenvalues --      315.03808  3201.96611  3504.69455
          X               0.00000     0.00000     1.00000
          Y              -0.00057     1.00000    -0.00000
          Z               1.00000     0.00057    -0.00000
   Rotational Symmetry Number is   1
   The Molecule is an Asymmetric Top
   Translational Enthalpy:        0.889 kcal/mol
   Rotational Enthalpy:           0.889 kcal/mol
   Vibrational Enthalpy:         83.315 kcal/mol
   gas constant (RT):             0.592 kcal/mol
   Translational Entropy:        40.478  cal/mol.K
   Rotational Entropy:           29.648  cal/mol.K
   Vibrational Entropy:          24.439  cal/mol.K

   Total Enthalpy:               85.685 kcal/mol
   Total Entropy:                94.565  cal/mol.K

 Total job time:  98.65s(wall), 1868.35s(cpu)
        *  Thank you very much for using Q-Chem.  Have a nice day.  *

User input: 2 of 2

                  Welcome to Q-Chem
     A Quantum Leap Into The Future Of Chemistry

 Q-Chem 5.3 (devel), Q-Chem, Inc., Pleasanton, CA (2020)

 Yihan Shao,  Zhengting Gan,  E. Epifanovsky,  A. T. B. Gilbert,  M. Wormit,
 J. Kussmann,  A. W. Lange,  A. Behn,  Jia Deng,  Xintian Feng,  D. Ghosh,
 M. Goldey,  P. R. Horn,  L. D. Jacobson,  I. Kaliman,  T. Kus,  A. Landau,
 Jie Liu,  E. I. Proynov,  R. M. Richard,  R. P. Steele,  E. J. Sundstrom,
 H. L. Woodcock III,  P. M. Zimmerman,  D. Zuev,  B. Alam,  B. Albrecht,
 E. Alguire,  S. A. Baeppler,  D. Barton,  Z. Benda,  Y. A. Bernard,
 E. J. Berquist,  K. B. Bravaya,  H. Burton,  K. Carter-Fenk,  D. Casanova,
 Chun-Min Chang,  Yunqing Chen,  A. Chien,  K. D. Closser,  M. P. Coons,
 S. Coriani,  S. Dasgupta,  A. L. Dempwolff,  M. Diedenhofen,  Hainam Do,
 R. G. Edgar,  Po-Tung Fang,  S. Faraji,  S. Fatehi,  Qingguo Feng,
 J. Fosso-Tande,  J. Gayvert,  Qinghui Ge,  A. Ghysels,  G. Gidofalvi,
 J. Gomes,  J. Gonthier,  A. Gunina,  D. Hait,  M. W. D. Hanson-Heine,
 P. H. P. Harbach,  A. W. Hauser,  M. F. Herbst,  J. E. Herr,
 E. G. Hohenstein,  Z. C. Holden,  Kerwin Hui,  B. C. Huynh,  T.-C. Jagau,
 Hyunjun Ji,  B. Kaduk,  K. Khistyaev,  Jaehoon Kim,  P. Klunzinger,  K. Koh,
 D. Kosenkov,  L. Koulias,  T. Kowalczyk,  C. M. Krauter,  A. Kunitsa,
 Ka Un Lao,  A. Laurent,  K. V. Lawler,  Joonho Lee,  D. Lefrancois,
 S. Lehtola,  D. S. Levine,  Yi-Pei Li,  You-Sheng Lin,  Fenglai Liu,
 Kuan-Yu Liu,  E. Livshits,  M. Loipersberger,  A. Luenser,  P. Manohar,
 E. Mansoor,  S. F. Manzer,  Shan-Ping Mao,  Yuezhi Mao,  N. Mardirossian,
 A. V. Marenich,  T. Markovich,  L. A. Martinez-Martinez,  S. A. Maurer,
 N. J. Mayhall,  S. C. McKenzie,  J.-M. Mewes,  P. Morgante,  A. F. Morrison,
 J. W. Mullinax,  K. Nanda,  T. S. Nguyen-Beck,  R. Olivares-Amaya,
 K. J. Oosterbaan,  J. A. Parkhill,  S. K. Paul,  F. Pavosevic,  Zheng Pei,
 T. M. Perrine,  F. Plasser,  P. Pokhilko,  S. Prager,  A. Prociuk,
 E. Ramos,  B. Rana,  D. R. Rehn,  F. Rob,  M. Scheurer,  M. Schneider,
 N. Sergueev,  S. M. Sharada,  S. Sharma,  D. W. Small,  T. Stauch,
 C. J. Stein,  T. Stein,  Yu-Chuan Su,  S. P. Veccham,  Zhen Tao,
 A. J. W. Thom,  A. Tkatchenko,  T. Tsuchimochi,  N. M. Tubman,  L. Vogt,
 M. L. Vidal,  O. Vydrov,  M. A. Watson,  J. Wenzel,  M. de Wergifosse,
 T. A. Wesolowski,  A. White,  J. Witte,  A. Yamada,  Jun Yang,  K. Yao,
 S. Yeganeh,  S. R. Yost,  Zhi-Qiang You,  A. Zech,  Igor Ying Zhang,
 Xing Zhang,  Yan Zhao,  Ying Zhu,  B. R. Brooks,  G. K. L. Chan,
 C. J. Cramer,  M. S. Gordon,  W. J. Hehre,  A. Klamt,  M. W. Schmidt,
 C. D. Sherrill,  D. G. Truhlar,  A. Aspuru-Guzik,  R. Baer,  A. T. Bell,
 N. A. Besley,  Jeng-Da Chai,  A. E. DePrince, III,  R. A. DiStasio Jr.,
 A. Dreuw,  B. D. Dunietz,  T. R. Furlani,  Chao-Ping Hsu,  Yousung Jung,
 Jing Kong,  D. S. Lambrecht,  WanZhen Liang,  C. Ochsenfeld,
 V. A. Rassolov,  L. V. Slipchenko,  J. E. Subotnik,  T. Van Voorhis,
 J. M. Herbert,  A. I. Krylov,  P. M. W. Gill,  M. Head-Gordon

 Contributors to earlier versions of Q-Chem not listed above:
 R. D. Adamson,  B. Austin,  J. Baker,  G. J. O. Beran,  K. Brandhorst,
 S. T. Brown,  E. F. C. Byrd,  A. K. Chakraborty,  C.-L. Cheng,
 Siu Hung Chien,  D. M. Chipman,  D. L. Crittenden,  H. Dachsel,
 R. J. Doerksen,  A. D. Dutoi,  L. Fusti-Molnar,  W. A. Goddard III,
 A. Golubeva-Zadorozhnaya,  S. R. Gwaltney,  G. Hawkins,  A. Heyden,
 S. Hirata,  G. Kedziora,  F. J. Keil,  C. Kelley,  Jihan Kim,  R. A. King,
 R. Z. Khaliullin,  P. P. Korambath,  W. Kurlancheek,  A. M. Lee,  M. S. Lee,
 S. V. Levchenko,  Ching Yeh Lin,  D. Liotard,  R. C. Lochan,  I. Lotan,
 P. E. Maslen,  N. Nair,  D. P. O'Neill,  D. Neuhauser,  E. Neuscamman,
 C. M. Oana,  R. Olson,  B. Peters,  R. Peverati,  P. A. Pieniazek,
 Y. M. Rhee,  J. Ritchie,  M. A. Rohrdanz,  E. Rosta,  N. J. Russ,
 H. F. Schaefer III,  N. E. Schultz,  N. Shenvi,  A. C. Simmonett,  A. Sodt,
 D. Stuck,  K. S. Thanthiriwatte,  V. Vanovschi,  Tao Wang,  A. Warshel,
 C. F. Williams,  Q. Wu,  X. Xu,  W. Zhang

 Please cite Q-Chem as follows:
 Y. Shao et al., Mol. Phys. 113, 184-215 (2015)
 DOI: 10.1080/00268976.2014.952696

 Q-Chem 5.3.0 for Intel X86 EM64T Linux

 Parts of Q-Chem use Armadillo 9.800.1 (Horizon Scraper).
 http://arma.sourceforge.net/

 Q-Chem begins on Mon Sep 26 17:55:20 2022

Host: c193.oscer.ou.edu
0

     Scratch files written to /scratch/yangjunjie/qchem3920//
Processing $rem in /home/zhengpei/q-chem/new-trunk/config/preferences:
Processing $rem in /home/yangjunjie/.qchemrc:
The previous job contains 0 fragments, simply inherited here

Checking the input file for inconsistencies... 	...done.

--------------------------------------------------------------
User input:
--------------------------------------------------------------

$molecule
    read
$end

$rem
   BASIS  =  6-311g**
   METHOD  =  b3lyp
   SCF_CONVERGENCE  =  8
   GUI  =  2
   JOB_TYPE  =  RPath
   RPATH_DIRECTION  =  1

   SYMMETRY_IGNORE  =  1
   SYMMETRY_INTEGRAL  =  0
   XC_GRID  =  3

   GEOM_OPT_HESSIAN  =  READ
   RPATH_MAX_CYCLES  =  40
$end
--------------------------------------------------------------

   16    -748.4428417665      2.08e-09  Convergence criterion met
 Total energy in the final basis set =     -748.4428417665
   16    -748.4437637178      4.51e-09  Convergence criterion met
 Total energy in the final basis set =     -748.4437637178
   15    -748.4437135801      6.58e-09  Convergence criterion met
 Total energy in the final basis set =     -748.4437135801
   16    -748.4437663050      4.28e-09  Convergence criterion met
 Total energy in the final basis set =     -748.4437663050
   17    -748.4461543302      2.78e-09  Convergence criterion met
 Total energy in the final basis set =     -748.4461543302
   17    -748.4458922381      3.37e-09  Convergence criterion met
 Total energy in the final basis set =     -748.4458922381
   17    -748.4461591649      2.84e-09  Convergence criterion met
 Total energy in the final basis set =     -748.4847384123
   14    -748.4850563635      5.16e-09  Convergence criterion met
 Total energy in the final basis set =     -748.4850563635
   14    -748.4833193803      4.70e-09  Convergence criterion met
 Total energy in the final basis set =     -748.4833193803
   13    -748.4853465651      8.52e-09  Convergence criterion met
 Total energy in the final basis set =     -748.4853465651
   14    -748.4821614525      4.56e-09  Convergence criterion met
 Total energy in the final basis set =     -748.4821614525
   13    -748.4853885262      7.30e-09  Convergence criterion met
 Total energy in the final basis set =     -748.4853885262
   14    -748.4853865926      7.53e-09  Convergence criterion met
 Total energy in the final basis set =     -748.4853865926
   13    -748.4854015212      7.09e-09  Convergence criterion met
 Total energy in the final basis set =     -748.4854015212

                    Orbital Energies (a.u.)
 --------------------------------------------------------------

 Alpha MOs
 -- Occupied --
******** -14.3225 -10.2220 -10.2220 -10.2081 -10.2078 -10.1981 -10.1981
 -9.4363  -7.2011  -7.1917  -7.1917  -0.9626  -0.8313  -0.8225  -0.7815
 -0.6640  -0.6496  -0.6458  -0.5480  -0.5008  -0.4880  -0.4498  -0.4343
 -0.4327  -0.4248  -0.4172  -0.3934  -0.3845  -0.3080  -0.2850  -0.2847
 -0.2836  -0.2732

          Ground-State Mulliken Net Atomic Charges

     Atom                 Charge (a.u.)
  ----------------------------------------
      1 C                     0.092643
      2 C                    -0.189703
      3 C                     0.006579
      4 C                    -0.190018
      5 C                     0.093575
      6 N                    -0.330506
      7 C                    -0.323315
      8 H                     0.111059
      9 H                     0.106799
     10 H                     0.110364
     11 H                     0.106888
     12 H                     0.112325
     13 H                     0.154544
     14 H                     0.156344
     15 H                     0.156344
     16 Cl                   -0.173922
  ----------------------------------------
  Sum of atomic charges =     0.000000

                    Cartesian Multipole Moments
 -----------------------------------------------------------------
    Charge (ESU x 10^10)
                 0.0000
    Dipole Moment (Debye)
         X      -0.0000      Y       0.0011      Z       5.4451
       Tot       5.4451
    Quadrupole Moments (Debye-Ang)
        XX     -57.9915     XY       0.0000     YY     -49.5000
        XZ      -0.0000     YZ      -0.0647     ZZ     -63.4931

             Standard Nuclear Orientation (Angstroms)
    I     Atom           X                Y                Z
 ----------------------------------------------------------------
    1      C       0.0000000000     1.1660982027     1.0273552653
    2      C       0.0000000000     1.1946334528     2.4157604328
    3      C       0.0000000180    -0.0121639542     3.1095089387
    4      C       0.0000000000    -1.2069297484     2.3932025625
    5      C      -0.0000000116    -1.1526098051     1.0067050564
    6      N       0.0000000000     0.0134384443     0.3516673433
    7      C       0.0000000201     0.0047870381    -1.4977735385
    8      H       0.0000000272     2.0723357584     0.4322646461
    9      H      -0.0000000085     2.1442784132     2.9351282546
   10      H      -0.0000000204    -0.0221952055     4.1928532082
   11      H      -0.0000000275    -2.1658350290     2.8952524958
   12      H       0.0000000072    -2.0464911312     0.3926780136
   13      H      -0.0000000545     1.0703998494    -1.6459204808
   14      H      -0.9246984434    -0.5273334701    -1.6369976837
   15      H       0.9246984837    -0.5273334658    -1.6369976934
   16      Cl     -0.0000000136     0.0031832501    -3.9609413212
 ----------------------------------------------------------------

 Total job time:  1300.08s(wall), 25518.07s(cpu)
        *  Thank you very much for using Q-Chem.  Have a nice day.  *
