 Q-Chem 5.3 (devel), Q-Chem, Inc., Pleasanton, CA (2020)
 Q-Chem 5.3.0 for Intel X86 EM64T Linux

User input:
--------------------------------------------------------------
$molecule
0 1
   C       0.0000000000     1.1660982027     1.0273552653
   C       0.0000000000     1.1946334528     2.4157604328
   C       0.0000000180    -0.0121639542     3.1095089387
   C       0.0000000000    -1.2069297484     2.3932025625
   C      -0.0000000116    -1.1526098051     1.0067050564
   N       0.0000000000     0.0134384443     0.3516673433
   C       0.0000000201     0.0047870381    -1.4977735385
   H       0.0000000272     2.0723357584     0.4322646461
   H      -0.0000000085     2.1442784132     2.9351282546
   H      -0.0000000204    -0.0221952055     4.1928532082
   H      -0.0000000275    -2.1658350290     2.8952524958
   H       0.0000000072    -2.0464911312     0.3926780136
   H      -0.0000000545     1.0703998494    -1.6459204808
   H      -0.9246984434    -0.5273334701    -1.6369976837
   H       0.9246984837    -0.5273334658    -1.6369976934
   Cl     -0.0000000136     0.0031832501    -3.9609413212
$end

$rem
   BASIS  =  6-311g**
   METHOD  =  HF
   JOB_TYPE  =  pes_scan

   SCF_CONVERGENCE  =  8
   GUI  =  2

   SYMMETRY_IGNORE  =  1
   SYMMETRY_INTEGRAL  =  0
$end

$scan
   r12mr34 16 7 7 6 -2.0 2.0 0.1 1000.0
$end
--------------------------------------------------------------

   15    -745.8253145057      4.86e-09  Convergence criterion met
 Total energy in the final basis set =     -745.8253145057
   15    -736.4208112809      5.46e-09  Convergence criterion met
 Total energy in the final basis set =     -736.4208112809
   15    -737.7965122360      5.03e-09  Convergence criterion met
 Total energy in the final basis set =     -737.7965122360
   15    -739.0654605562      4.29e-09  Convergence criterion met
 Total energy in the final basis set =     -739.0654605562
   15    -740.2269884059      3.47e-09  Convergence criterion met
 Total energy in the final basis set =     -740.2269884059
   15    -741.2804893494      2.82e-09  Convergence criterion met
 Total energy in the final basis set =     -741.2804893494
   14    -742.2254961428      8.28e-09  Convergence criterion met
 Total energy in the final basis set =     -742.2254961428
   14    -743.0616404075      6.89e-09  Convergence criterion met
 **  OPTIMIZATION CONVERGED  **
 **  OPTIMIZATION CONVERGED  **
 **  OPTIMIZATION CONVERGED  **
   14    -745.8424441294      9.48e-09  Convergence criterion met
 Total energy in the final basis set =     -745.8424441294
   14    -745.8320065400      8.71e-09  Convergence criterion met
 Total energy in the final basis set =     -745.8320065400
   14    -745.8404527887      9.30e-09  Convergence criterion met
 Total energy in the final basis set =     -745.8404527887
   14    -745.8406749774      9.22e-09  Convergence criterion met
 Total energy in the final basis set =     -745.8406749774
   14    -745.8407256586      9.24e-09  Convergence criterion met
 Total energy in the final basis set =     -745.8407256586
   14    -745.8407292491      9.25e-09  Convergence criterion met
 Total energy in the final basis set =     -745.8407292491

             Standard Nuclear Orientation (Angstroms)
    I     Atom           X                Y                Z
 ----------------------------------------------------------------
    1      C       0.0000005046     1.1650622962     1.0230294901
    2      C       0.0000006418     1.1858265047     2.3982111057
    3      C      -0.0000000401    -0.0162068712     3.0813270740
    4      C      -0.0000005467    -1.2055467705     2.3674179972
    5      C      -0.0000007244    -1.1509515598     0.9979539938
    6      N      -0.0000002973     0.0170553030     0.3509235973
    7      C      -0.0000000193     0.0116172415    -1.1226265545
    8      H       0.0000009701     2.0608811873     0.4345055796
    9      H       0.0000011094     2.1271643511     2.9114821802
   10      H       0.0000001003    -0.0296043808     4.1555867324
   11      H      -0.0000008730    -2.1583859088     2.8590507710
   12      H      -0.0000011869    -2.0292697280     0.3818876779
   13      H      -0.0000034122     1.0218382354    -1.4944033434
   14      H      -0.8807694741    -0.4916614943    -1.4900116392
   15      H       0.8807730002    -0.4916555163    -1.4900113854
   16      Cl      0.0000002067    -0.0079002898    -4.5905777772
 ----------------------------------------------------------------

   14    -745.8407300699      9.25e-09  Convergence criterion met
 Total energy in the final basis set =     -745.8407300699

                    Orbital Energies (a.u.)
 --------------------------------------------------------------

 Alpha MOs
 -- Occupied --
******** -15.7523 -11.3963 -11.3941 -11.3635 -11.3419 -11.3414 -11.3094
-10.3338  -7.8007  -7.8006  -7.8006  -1.4397  -1.2217  -1.1644  -1.0528
 -0.9929  -0.9565  -0.8417  -0.8295  -0.7944  -0.7640  -0.7235  -0.7208
 -0.7176  -0.6352  -0.6239  -0.6119  -0.6052  -0.4935  -0.4597  -0.2604
 -0.2575  -0.2574

          Ground-State Mulliken Net Atomic Charges

     Atom                 Charge (a.u.)
  ----------------------------------------
      1 C                     0.273706
      2 C                    -0.252164
      3 C                     0.098082
      4 C                    -0.246088
      5 C                     0.271309
      6 N                    -0.432476
      7 C                    -0.095410
      8 H                     0.184602
      9 H                     0.154771
     10 H                     0.155501
     11 H                     0.154665
     12 H                     0.184268
     13 H                     0.149685
     14 H                     0.181490
     15 H                     0.181490
     16 Cl                   -0.963432
  ----------------------------------------
  Sum of atomic charges =     0.000000

                    Cartesian Multipole Moments
 -----------------------------------------------------------------
    Charge (ESU x 10^10)
                -0.0000
    Dipole Moment (Debye)
         X      -0.0000      Y       0.0357      Z      24.3661
       Tot      24.3661
    Quadrupole Moments (Debye-Ang)
        XX     -59.1469     XY       0.0000     YY     -45.3445
        XZ       0.0000     YZ      -0.1737     ZZ    -132.8695

 Final energy is   -745.840730069905
 **  OPTIMIZATION CONVERGED  **
 Total job time:  1163.08s(wall), 21549.54s(cpu)
        *  Thank you very much for using Q-Chem.  Have a nice day.  *
